ITEM: TIMESTEP
0
ITEM: NUMBER OF ATOMS
420
ITEM: BOX BOUNDS pp ss pp
0.0000000000000000e+00 2.5687134504920127e+01
-2.2245711031688635e-03 2.2247935602791809e+01
-3.2108918131150160e-01 3.2108918131150160e-01
ITEM: ATOMS id type element x y z
1 2 C 0 0 0
3 2 C 1.28436 0 0
5 2 C 2.56871 0 0
7 2 C 3.85307 0 0
9 2 C 5.13743 0 0
11 2 C 6.42178 0 0
13 2 C 7.70614 0 0
15 2 C 8.9905 0 0
17 2 C 10.2749 0 0
19 2 C 11.5592 0 0
21 2 C 12.8436 0 0
23 2 C 14.1279 0 0
25 2 C 15.4123 0 0
27 2 C 16.6966 0 0
29 2 C 17.981 0 0
31 2 C 19.2654 0 0
33 2 C 20.5497 0 0
35 2 C 21.8341 0 0
37 2 C 23.1184 0 0
39 2 C 24.4028 0 0
2 2 C 0.642178 1.11229 0
4 2 C 1.92654 1.11229 0
6 2 C 3.21089 1.11229 0
8 2 C 4.49525 1.11229 0
10 2 C 5.77961 1.11229 0
12 2 C 7.06396 1.11229 0
14 2 C 8.34832 1.11229 0
16 2 C 9.63268 1.11229 0
18 2 C 10.917 1.11229 0
20 2 C 12.2014 1.11229 0
22 2 C 13.4857 1.11229 0
24 2 C 14.7701 1.11229 0
26 2 C 16.0545 1.11229 0
28 2 C 17.3388 1.11229 0
30 2 C 18.6232 1.11229 0
32 2 C 19.9075 1.11229 0
34 2 C 21.1919 1.11229 0
36 2 C 22.4762 1.11229 0
38 2 C 23.7606 1.11229 0
40 2 C 25.045 1.11229 0
41 2 C 0 2.22457 0
43 2 C 1.28436 2.22457 0
45 2 C 2.56871 2.22457 0
47 2 C 3.85307 2.22457 0
49 2 C 5.13743 2.22457 0
51 2 C 6.42178 2.22457 0
53 2 C 7.70614 2.22457 0
55 2 C 8.9905 2.22457 0
57 2 C 10.2749 2.22457 0
59 2 C 11.5592 2.22457 0
61 2 C 12.8436 2.22457 0
63 2 C 14.1279 2.22457 0
65 2 C 15.4123 2.22457 0
67 2 C 16.6966 2.22457 0
69 2 C 17.981 2.22457 0
71 2 C 19.2654 2.22457 0
73 2 C 20.5497 2.22457 0
75 2 C 21.8341 2.22457 0
77 2 C 23.1184 2.22457 0
79 2 C 24.4028 2.22457 0
42 1 C 0.642178 3.33686 0
44 1 C 1.92654 3.33686 0
46 1 C 3.21089 3.33686 0
48 1 C 4.49525 3.33686 0
50 1 C 5.77961 3.33686 0
52 1 C 7.06396 3.33686 0
54 1 C 8.34832 3.33686 0
56 1 C 9.63268 3.33686 0
58 1 C 10.917 3.33686 0
60 1 C 12.2014 3.33686 0
62 1 C 13.4857 3.33686 0
64 1 C 14.7701 3.33686 0
66 1 C 16.0545 3.33686 0
68 1 C 17.3388 3.33686 0
70 1 C 18.6232 3.33686 0
72 1 C 19.9075 3.33686 0
74 1 C 21.1919 3.33686 0
76 1 C 22.4762 3.33686 0
78 1 C 23.7606 3.33686 0
80 1 C 25.045 3.33686 0
81 1 C 0 4.44914 0
83 1 C 1.28436 4.44914 0
85 1 C 2.56871 4.44914 0
87 1 C 3.85307 4.44914 0
89 1 C 5.13743 4.44914 0
91 1 C 6.42178 4.44914 0
93 1 C 7.70614 4.44914 0
95 1 C 8.9905 4.44914 0
97 1 C 10.2749 4.44914 0
99 1 C 11.5592 4.44914 0
101 1 C 12.8436 4.44914 0
103 1 C 14.1279 4.44914 0
105 1 C 15.4123 4.44914 0
107 1 C 16.6966 4.44914 0
109 1 C 17.981 4.44914 0
111 1 C 19.2654 4.44914 0
113 1 C 20.5497 4.44914 0
115 1 C 21.8341 4.44914 0
117 1 C 23.1184 4.44914 0
119 1 C 24.4028 4.44914 0
82 1 C 0.642178 5.56143 0
84 1 C 1.92654 5.56143 0
86 1 C 3.21089 5.56143 0
88 1 C 4.49525 5.56143 0
90 1 C 5.77961 5.56143 0
92 1 C 7.06396 5.56143 0
94 1 C 8.34832 5.56143 0
96 1 C 9.63268 5.56143 0
98 1 C 10.917 5.56143 0
100 1 C 12.2014 5.56143 0
102 1 C 13.4857 5.56143 0
104 1 C 14.7701 5.56143 0
106 1 C 16.0545 5.56143 0
108 1 C 17.3388 5.56143 0
110 1 C 18.6232 5.56143 0
112 1 C 19.9075 5.56143 0
114 1 C 21.1919 5.56143 0
116 1 C 22.4762 5.56143 0
118 1 C 23.7606 5.56143 0
120 1 C 25.045 5.56143 0
121 1 C 0 6.67371 0
123 1 C 1.28436 6.67371 0
125 1 C 2.56871 6.67371 0
127 1 C 3.85307 6.67371 0
129 1 C 5.13743 6.67371 0
131 1 C 6.42178 6.67371 0
133 1 C 7.70614 6.67371 0
135 1 C 8.9905 6.67371 0
137 1 C 10.2749 6.67371 0
139 1 C 11.5592 6.67371 0
141 1 C 12.8436 6.67371 0
143 1 C 14.1279 6.67371 0
145 1 C 15.4123 6.67371 0
147 1 C 16.6966 6.67371 0
149 1 C 17.981 6.67371 0
151 1 C 19.2654 6.67371 0
153 1 C 20.5497 6.67371 0
155 1 C 21.8341 6.67371 0
157 1 C 23.1184 6.67371 0
159 1 C 24.4028 6.67371 0
122 1 C 0.642178 7.786 0
124 1 C 1.92654 7.786 0
126 1 C 3.21089 7.786 0
128 1 C 4.49525 7.786 0
130 1 C 5.77961 7.786 0
132 1 C 7.06396 7.786 0
134 1 C 8.34832 7.786 0
136 1 C 9.63268 7.786 0
138 1 C 10.917 7.786 0
140 1 C 12.2014 7.786 0
142 1 C 13.4857 7.786 0
144 1 C 14.7701 7.786 0
146 1 C 16.0545 7.786 0
148 1 C 17.3388 7.786 0
150 1 C 18.6232 7.786 0
152 1 C 19.9075 7.786 0
154 1 C 21.1919 7.786 0
156 1 C 22.4762 7.786 0
158 1 C 23.7606 7.786 0
160 1 C 25.045 7.786 0
161 1 C 0 8.89828 0
163 1 C 1.28436 8.89828 0
165 1 C 2.56871 8.89828 0
167 1 C 3.85307 8.89828 0
169 1 C 5.13743 8.89828 0
171 1 C 6.42178 8.89828 0
173 1 C 7.70614 8.89828 0
175 1 C 8.9905 8.89828 0
177 1 C 10.2749 8.89828 0
179 1 C 11.5592 8.89828 0
181 1 C 12.8436 8.89828 0
183 1 C 14.1279 8.89828 0
185 1 C 15.4123 8.89828 0
187 1 C 16.6966 8.89828 0
189 1 C 17.981 8.89828 0
191 1 C 19.2654 8.89828 0
193 1 C 20.5497 8.89828 0
195 1 C 21.8341 8.89828 0
197 1 C 23.1184 8.89828 0
199 1 C 24.4028 8.89828 0
162 1 C 0.642178 10.0106 0
164 1 C 1.92654 10.0106 0
166 1 C 3.21089 10.0106 0
168 1 C 4.49525 10.0106 0
170 1 C 5.77961 10.0106 0
172 1 C 7.06396 10.0106 0
174 1 C 8.34832 10.0106 0
176 1 C 9.63268 10.0106 0
178 1 C 10.917 10.0106 0
180 1 C 12.2014 10.0106 0
182 1 C 13.4857 10.0106 0
184 1 C 14.7701 10.0106 0
186 1 C 16.0545 10.0106 0
188 1 C 17.3388 10.0106 0
190 1 C 18.6232 10.0106 0
192 1 C 19.9075 10.0106 0
194 1 C 21.1919 10.0106 0
196 1 C 22.4762 10.0106 0
198 1 C 23.7606 10.0106 0
200 1 C 25.045 10.0106 0
201 1 C 0 11.1229 0
203 1 C 1.28436 11.1229 0
205 1 C 2.56871 11.1229 0
207 1 C 3.85307 11.1229 0
209 1 C 5.13743 11.1229 0
211 1 C 6.42178 11.1229 0
213 1 C 7.70614 11.1229 0
215 1 C 8.9905 11.1229 0
217 1 C 10.2749 11.1229 0
219 1 C 11.5592 11.1229 0
221 1 C 12.8436 11.1229 0
223 1 C 14.1279 11.1229 0
225 1 C 15.4123 11.1229 0
227 1 C 16.6966 11.1229 0
229 1 C 17.981 11.1229 0
231 1 C 19.2654 11.1229 0
233 1 C 20.5497 11.1229 0
235 1 C 21.8341 11.1229 0
237 1 C 23.1184 11.1229 0
239 1 C 24.4028 11.1229 0
202 1 C 0.642178 12.2351 0
204 1 C 1.92654 12.2351 0
206 1 C 3.21089 12.2351 0
208 1 C 4.49525 12.2351 0
210 1 C 5.77961 12.2351 0
212 1 C 7.06396 12.2351 0
214 1 C 8.34832 12.2351 0
216 1 C 9.63268 12.2351 0
218 1 C 10.917 12.2351 0
220 1 C 12.2014 12.2351 0
222 1 C 13.4857 12.2351 0
224 1 C 14.7701 12.2351 0
226 1 C 16.0545 12.2351 0
228 1 C 17.3388 12.2351 0
230 1 C 18.6232 12.2351 0
232 1 C 19.9075 12.2351 0
234 1 C 21.1919 12.2351 0
236 1 C 22.4762 12.2351 0
238 1 C 23.7606 12.2351 0
240 1 C 25.045 12.2351 0
241 1 C 0 13.3474 0
243 1 C 1.28436 13.3474 0
245 1 C 2.56871 13.3474 0
247 1 C 3.85307 13.3474 0
249 1 C 5.13743 13.3474 0
251 1 C 6.42178 13.3474 0
253 1 C 7.70614 13.3474 0
255 1 C 8.9905 13.3474 0
257 1 C 10.2749 13.3474 0
259 1 C 11.5592 13.3474 0
261 1 C 12.8436 13.3474 0
263 1 C 14.1279 13.3474 0
265 1 C 15.4123 13.3474 0
267 1 C 16.6966 13.3474 0
269 1 C 17.981 13.3474 0
271 1 C 19.2654 13.3474 0
273 1 C 20.5497 13.3474 0
275 1 C 21.8341 13.3474 0
277 1 C 23.1184 13.3474 0
279 1 C 24.4028 13.3474 0
242 1 C 0.642178 14.4597 0
244 1 C 1.92654 14.4597 0
246 1 C 3.21089 14.4597 0
248 1 C 4.49525 14.4597 0
250 1 C 5.77961 14.4597 0
252 1 C 7.06396 14.4597 0
254 1 C 8.34832 14.4597 0
256 1 C 9.63268 14.4597 0
258 1 C 10.917 14.4597 0
260 1 C 12.2014 14.4597 0
262 1 C 13.4857 14.4597 0
264 1 C 14.7701 14.4597 0
266 1 C 16.0545 14.4597 0
268 1 C 17.3388 14.4597 0
270 1 C 18.6232 14.4597 0
272 1 C 19.9075 14.4597 0
274 1 C 21.1919 14.4597 0
276 1 C 22.4762 14.4597 0
278 1 C 23.7606 14.4597 0
280 1 C 25.045 14.4597 0
281 1 C 0 15.572 0
283 1 C 1.28436 15.572 0
285 1 C 2.56871 15.572 0
287 1 C 3.85307 15.572 0
289 1 C 5.13743 15.572 0
291 1 C 6.42178 15.572 0
293 1 C 7.70614 15.572 0
295 1 C 8.9905 15.572 0
297 1 C 10.2749 15.572 0
299 1 C 11.5592 15.572 0
301 1 C 12.8436 15.572 0
303 1 C 14.1279 15.572 0
305 1 C 15.4123 15.572 0
307 1 C 16.6966 15.572 0
309 1 C 17.981 15.572 0
311 1 C 19.2654 15.572 0
313 1 C 20.5497 15.572 0
315 1 C 21.8341 15.572 0
317 1 C 23.1184 15.572 0
319 1 C 24.4028 15.572 0
282 1 C 0.642178 16.6843 0
284 1 C 1.92654 16.6843 0
286 1 C 3.21089 16.6843 0
288 1 C 4.49525 16.6843 0
290 1 C 5.77961 16.6843 0
292 1 C 7.06396 16.6843 0
294 1 C 8.34832 16.6843 0
296 1 C 9.63268 16.6843 0
298 1 C 10.917 16.6843 0
300 1 C 12.2014 16.6843 0
302 1 C 13.4857 16.6843 0
304 1 C 14.7701 16.6843 0
306 1 C 16.0545 16.6843 0
308 1 C 17.3388 16.6843 0
310 1 C 18.6232 16.6843 0
312 1 C 19.9075 16.6843 0
314 1 C 21.1919 16.6843 0
316 1 C 22.4762 16.6843 0
318 1 C 23.7606 16.6843 0
320 1 C 25.045 16.6843 0
321 1 C 0 17.7966 0
323 1 C 1.28436 17.7966 0
325 1 C 2.56871 17.7966 0
327 1 C 3.85307 17.7966 0
329 1 C 5.13743 17.7966 0
331 1 C 6.42178 17.7966 0
333 1 C 7.70614 17.7966 0
335 1 C 8.9905 17.7966 0
337 1 C 10.2749 17.7966 0
339 1 C 11.5592 17.7966 0
341 1 C 12.8436 17.7966 0
343 1 C 14.1279 17.7966 0
345 1 C 15.4123 17.7966 0
347 1 C 16.6966 17.7966 0
349 1 C 17.981 17.7966 0
351 1 C 19.2654 17.7966 0
353 1 C 20.5497 17.7966 0
355 1 C 21.8341 17.7966 0
357 1 C 23.1184 17.7966 0
359 1 C 24.4028 17.7966 0
322 1 C 0.642178 18.9089 0
324 1 C 1.92654 18.9089 0
326 1 C 3.21089 18.9089 0
328 1 C 4.49525 18.9089 0
330 1 C 5.77961 18.9089 0
332 1 C 7.06396 18.9089 0
334 1 C 8.34832 18.9089 0
336 1 C 9.63268 18.9089 0
338 1 C 10.917 18.9089 0
340 1 C 12.2014 18.9089 0
342 1 C 13.4857 18.9089 0
344 1 C 14.7701 18.9089 0
346 1 C 16.0545 18.9089 0
348 1 C 17.3388 18.9089 0
350 1 C 18.6232 18.9089 0
352 1 C 19.9075 18.9089 0
354 1 C 21.1919 18.9089 0
356 1 C 22.4762 18.9089 0
358 1 C 23.7606 18.9089 0
360 1 C 25.045 18.9089 0
361 3 C 0 20.0211 0
363 3 C 1.28436 20.0211 0
365 3 C 2.56871 20.0211 0
367 3 C 3.85307 20.0211 0
369 3 C 5.13743 20.0211 0
371 3 C 6.42178 20.0211 0
373 3 C 7.70614 20.0211 0
375 3 C 8.9905 20.0211 0
377 3 C 10.2749 20.0211 0
379 3 C 11.5592 20.0211 0
381 3 C 12.8436 20.0211 0
383 3 C 14.1279 20.0211 0
385 3 C 15.4123 20.0211 0
387 3 C 16.6966 20.0211 0
389 3 C 17.981 20.0211 0
391 3 C 19.2654 20.0211 0
393 3 C 20.5497 20.0211 0
395 3 C 21.8341 20.0211 0
397 3 C 23.1184 20.0211 0
399 3 C 24.4028 20.0211 0
362 3 C 0.642178 21.1334 0
364 3 C 1.92654 21.1334 0
366 3 C 3.21089 21.1334 0
368 3 C 4.49525 21.1334 0
370 3 C 5.77961 21.1334 0
372 3 C 7.06396 21.1334 0
374 3 C 8.34832 21.1334 0
376 3 C 9.63268 21.1334 0
378 3 C 10.917 21.1334 0
380 3 C 12.2014 21.1334 0
382 3 C 13.4857 21.1334 0
384 3 C 14.7701 21.1334 0
386 3 C 16.0545 21.1334 0
388 3 C 17.3388 21.1334 0
390 3 C 18.6232 21.1334 0
392 3 C 19.9075 21.1334 0
394 3 C 21.1919 21.1334 0
396 3 C 22.4762 21.1334 0
398 3 C 23.7606 21.1334 0
400 3 C 25.045 21.1334 0
401 3 C 0 22.2457 0
402 3 C 1.28436 22.2457 0
403 3 C 2.56871 22.2457 0
404 3 C 3.85307 22.2457 0
405 3 C 5.13743 22.2457 0
406 3 C 6.42178 22.2457 0
407 3 C 7.70614 22.2457 0
408 3 C 8.9905 22.2457 0
409 3 C 10.2749 22.2457 0
410 3 C 11.5592 22.2457 0
411 3 C 12.8436 22.2457 0
412 3 C 14.1279 22.2457 0
413 3 C 15.4123 22.2457 0
414 3 C 16.6966 22.2457 0
415 3 C 17.981 22.2457 0
416 3 C 19.2654 22.2457 0
417 3 C 20.5497 22.2457 0
418 3 C 21.8341 22.2457 0
419 3 C 23.1184 22.2457 0
420 3 C 24.4028 22.2457 0
ITEM: TIMESTEP
50
ITEM: NUMBER OF ATOMS
420
ITEM: BOX BOUNDS pp ss pp
0.0000000000000000e+00 2.5687134504920127e+01
-2.2245711031688635e-03 2.2239799908796819e+01
-3.2108918131150160e-01 3.2108918131150160e-01
ITEM: ATOMS id type element x y z
1 2 C 0 0 0
3 2 C 1.28436 0 0
5 2 C 2.56871 0 0
7 2 C 3.85307 0 0
9 2 C 5.13743 0 0
11 2 C 6.42178 0 0
13 2 C 7.70614 0 0
15 2 C 8.9905 0 0
17 2 C 10.2749 0 0
19 2 C 11.5592 0 0
21 2 C 12.8436 0 0
23 2 C 14.1279 0 0
25 2 C 15.4123 0 0
27 2 C 16.6966 0 0
29 2 C 17.981 0 0
31 2 C 19.2654 0 0
33 2 C 20.5497 0 0
35 2 C 21.8341 0 0
37 2 C 23.1184 0 0
39 2 C 24.4028 0 0
2 2 C 0.642178 1.11229 0
4 2 C 1.92654 1.11229 0
6 2 C 3.21089 1.11229 0
8 2 C 4.49525 1.11229 0
10 2 C 5.77961 1.11229 0
12 2 C 7.06396 1.11229 0
14 2 C 8.34832 1.11229 0
16 2 C 9.63268 1.11229 0
18 2 C 10.917 1.11229 0
20 2 C 12.2014 1.11229 0
22 2 C 13.4857 1.11229 0
24 2 C 14.7701 1.11229 0
26 2 C 16.0545 1.11229 0
28 2 C 17.3388 1.11229 0
30 2 C 18.6232 1.11229 0
32 2 C 19.9075 1.11229 0
34 2 C 21.1919 1.11229 0
36 2 C 22.4762 1.11229 0
38 2 C 23.7606 1.11229 0
40 2 C 25.045 1.11229 0
41 2 C 0 2.22457 0
43 2 C 1.28436 2.22457 0
45 2 C 2.56871 2.22457 0
47 2 C 3.85307 2.22457 0
49 2 C 5.13743 2.22457 0
51 2 C 6.42178 2.22457 0
53 2 C 7.70614 2.22457 0
55 2 C 8.9905 2.22457 0
57 2 C 10.2749 2.22457 0
59 2 C 11.5592 2.22457 0
61 2 C 12.8436 2.22457 0
63 2 C 14.1279 2.22457 0
65 2 C 15.4123 2.22457 0
67 2 C 16.6966 2.22457 0
69 2 C 17.981 2.22457 0
71 2 C 19.2654 2.22457 0
73 2 C 20.5497 2.22457 0
75 2 C 21.8341 2.22457 0
77 2 C 23.1184 2.22457 0
79 2 C 24.4028 2.22457 0
42 1 C 0.542949 3.31831 0
44 1 C 1.97877 3.5502 0
46 1 C 3.26888 3.5611 0
48 1 C 4.61276 3.2942 0
50 1 C 5.90127 3.33819 0
52 1 C 7.01601 3.13834 0
54 1 C 8.52325 3.12266 0
56 1 C 9.48509 3.42567 0
58 1 C 11.1783 3.39101 0
60 1 C 12.3597 3.3952 0
62 1 C 13.7172 3.48939 0
64 1 C 14.7285 3.55718 0
66 1 C 16.2438 3.44981 0
68 1 C 17.5287 3.3367 0
70 1 C 18.5412 3.34001 0
72 1 C 19.777 3.23864 0
74 1 C 21.3668 3.45831 0
76 1 C 22.4131 3.43151 0
78 1 C 23.8718 3.51822 0
80 1 C 25.2502 3.16543 0
81 1 C 25.6188 4.5128 0
83 1 C 1.32144 4.32159 0
85 1 C 2.40007 4.45292 0
87 1 C 4.0258 4.2125 0
89 1 C 5.29332 4.46499 0
91 1 C 6.28308 4.43135 0
93 1 C 7.6757 4.36568 0
95 1 C 9.01072 4.29252 0
97 1 C 10.2475 4.51718 0
99 1 C 11.5978 4.31243 0
101 1 C 13.0272 4.42923 0
103 1 C 14.1525 4.40143 0
105 1 C 15.4735 4.42576 0
107 1 C 16.8462 4.3022 0
109 1 C 17.9168 4.50318 0
111 1 C 19.4332 4.70649 0
113 1 C 20.3956 4.38791 0
115 1 C 21.9721 4.32089 0
117 1 C 23.098 4.48554 0
119 1 C 24.2761 4.41353 0
82 1 C 0.724522 5.45915 0
84 1 C 2.13766 5.4307 0
86 1 C 3.12215 5.67503 0
88 1 C 4.29745 5.41798 0
90 1 C 5.67947 5.78534 0
92 1 C 7.24581 5.38606 0
94 1 C 8.22459 5.50757 0
96 1 C 9.44858 5.4725 0
98 1 C 10.8812 5.61194 0
100 1 C 12.2464 5.35776 0
102 1 C 13.2568 5.60147 0
104 1 C 14.7523 5.54809 0
106 1 C 16.1888 5.71885 0
108 1 C 17.2752 5.36002 0
110 1 C 18.544 5.72039 0
112 1 C 19.9917 5.78959 0
114 1 C 21.1889 5.5294 0
116 1 C 22.506 5.66909 0
118 1 C 23.5561 5.35271 0
120 1 C 24.9175 5.55325 0
121 1 C 25.6071 6.58794 0
123 1 C 1.0553 6.6131 0
125 1 C 2.33384 6.85432 0
127 1 C 3.93274 6.68857 0
129 1 C 5.03472 6.70399 0
131 1 C 6.61638 6.84695 0
133 1 C 7.76471 6.86381 0
135 1 C 9.0923 6.79158 0
137 1 C 10.1256 6.63015 0
139 1 C 11.4746 6.77689 0
141 1 C 12.7405 6.45623 0
143 1 C 13.9347 6.60321 0
145 1 C 15.1958 6.81793 0
147 1 C 16.8156 6.60207 0
149 1 C 18.1763 6.89579 0
151 1 C 19.1617 6.81753 0
153 1 C 20.4914 6.7117 0
155 1 C 21.8496 6.65251 0
157 1 C 23.0982 6.81483 0
159 1 C 24.418 6.85611 0
122 1 C 0.797189 7.69881 0
124 1 C 1.89445 7.80005 0
126 1 C 3.31485 7.90016 0
128 1 C 4.5999 7.84824 0
130 1 C 5.89497 7.55244 0
132 1 C 7.0423 7.96404 0
134 1 C 8.37224 7.73194 0
136 1 C 9.85476 7.82592 0
138 1 C 11.1514 7.73941 0
140 1 C 12.4285 7.77335 0
142 1 C 13.44 8.00338 0
144 1 C 14.6005 7.89311 0
146 1 C 15.8614 7.65865 0
148 1 C 17.5275 7.65905 0
150 1 C 18.7717 7.75441 0
152 1 C 19.855 7.91024 0
154 1 C 21.0941 7.67191 0
156 1 C 22.3686 7.5922 0
158 1 C 23.5108 7.93875 0
160 1 C 25.3048 7.61004 0
161 1 C 0.112795 9.11592 0
163 1 C 1.20981 9.12926 0
165 1 C 2.34561 9.04385 0
167 1 C 3.6535 9.03918 0
169 1 C 4.92883 8.77725 0
171 1 C 6.6489 9.00377 0
173 1 C 7.96754 8.67657 0
175 1 C 9.00252 8.94344 0
177 1 C 10.3869 8.64474 0
179 1 C 11.3564 8.75044 0
181 1 C 12.656 9.02969 0
183 1 C 13.9709 8.84672 0
185 1 C 15.2077 8.66609 0
187 1 C 16.4932 8.70885 0
189 1 C 18.0661 9.14003 0
191 1 C 19.4447 8.81322 0
193 1 C 20.4141 9.08717 0
195 1 C 21.6612 8.76858 0
197 1 C 23.3121 9.10803 0
199 1 C 24.6404 8.7419 0
162 1 C 0.545935 10.0614 0
164 1 C 1.81798 9.97124 0
166 1 C 3.11891 9.87547 0
168 1 C 4.42472 9.91052 0
170 1 C 5.90187 9.9703 0
172 1 C 7.09592 10.1263 0
174 1 C 8.54859 9.87649 0
176 1 C 9.74905 9.84702 0
178 1 C 10.7289 9.82761 0
180 1 C 12.3427 10.0268 0
182 1 C 13.5691 9.88502 0
184 1 C 14.8449 10.2311 0
186 1 C 15.8818 10.1626 0
188 1 C 17.2225 9.97378 0
190 1 C 18.4795 10.0602 0
192 1 C 19.8073 9.89078 0
194 1 C 21.293 9.9966 0
196 1 C 22.3057 10.1073 0
198 1 C 23.9895 9.91963 0
200 1 C 25.1849 10.0617 0
201 1 C 25.5631 11.1954 0
203 1 C 1.13766 11.0786 0
205 1 C 2.36012 10.8803 0
207 1 C 3.9106 11.0926 0
209 1 C 5.25798 11.0851 0
211 1 C 6.31004 11.338 0
213 1 C 7.90228 11.2308 0
215 1 C 8.86847 11.3686 0
217 1 C 10.1592 11.2092 0
219 1 C 11.6548 11.1986 0
221 1 C 12.7814 11.0853 0
223 1 C 14.1747 11.3211 0
225 1 C 15.4558 11.3524 0
227 1 C 16.9631 10.9486 0
229 1 C 18.141 10.9807 0
231 1 C 19.4891 11.2921 0
233 1 C 20.5905 11.226 0
235 1 C 21.9806 11.0567 0
237 1 C 23.0868 10.921 0
239 1 C 24.6058 10.9383 0
202 1 C 0.475278 12.2603 0
204 1 C 1.68829 12.1873 0
206 1 C 3.23476 12.3569 0
208 1 C 4.64866 12.3632 0
210 1 C 5.5836 12.0287 0
212 1 C 7.27713 11.9914 0
214 1 C 8.21756 12.3543 0
216 1 C 9.90173 12.3687 0
218 1 C 11.0548 12.3645 0
220 1 C 12.4445 12.0451 0
222 1 C 13.4283 12.1951 0
224 1 C 14.89 12.2937 0
226 1 C 16.0575 12.3068 0
228 1 C 17.4793 12.3538 0
230 1 C 18.5645 12.2808 0
232 1 C 19.8148 12.2228 0
234 1 C 21.1204 12.1672 0
236 1 C 22.262 12.3025 0
238 1 C 23.5558 12.1878 0
240 1 C 25.0785 12.4359 0
241 1 C 0.106395 13.187 0
243 1 C 1.07867 13.4139 0
245 1 C 2.49639 13.3468 0
247 1 C 3.87011 13.3152 0
249 1 C 5.1915 13.2217 0
251 1 C 6.55254 13.1815 0
253 1 C 7.62765 13.4592 0
255 1 C 8.94214 13.5262 0
257 1 C 10.4642 13.5641 0
259 1 C 11.5058 13.33 0
261 1 C 12.8871 13.5097 0
263 1 C 14.2285 13.3883 0
265 1 C 15.5632 13.2098 0
267 1 C 16.6017 13.174 0
269 1 C 18.005 13.3092 0
271 1 C 19.2971 13.3205 0
273 1 C 20.6123 13.5649 0
275 1 C 21.9468 13.2923 0
277 1 C 23.1603 13.4058 0
279 1 C 24.2077 13.4724 0
242 1 C 0.585467 14.6466 0
244 1 C 1.85629 14.36 0
246 1 C 3.37082 14.3208 0
248 1 C 4.64679 14.4326 0
250 1 C 5.65436 14.4663 0
252 1 C 7.08624 14.3069 0
254 1 C 8.41995 14.3572 0
256 1 C 9.70085 14.2657 0
258 1 C 11.1169 14.6494 0
260 1 C 12.0448 14.2434 0
262 1 C 13.6417 14.2118 0
264 1 C 14.6199 14.4434 0
266 1 C 15.8861 14.3912 0
268 1 C 17.1259 14.2864 0
270 1 C 18.8314 14.3245 0
272 1 C 20.0524 14.5611 0
274 1 C 21.1433 14.6706 0
276 1 C 22.541 14.5536 0
278 1 C 23.5621 14.3087 0
280 1 C 25.2603 14.6329 0
281 1 C 0.0278217 15.592 0
283 1 C 1.21636 15.5683 0
285 1 C 2.52524 15.3372 0
287 1 C 3.7684 15.6044 0
289 1 C 4.98645 15.4608 0
291 1 C 6.62452 15.5766 0
293 1 C 7.73665 15.4246 0
295 1 C 8.79948 15.7388 0
297 1 C 10.2202 15.356 0
299 1 C 11.8029 15.4428 0
301 1 C 12.8906 15.7848 0
303 1 C 13.9051 15.4341 0
305 1 C 15.6618 15.584 0
307 1 C 16.6521 15.4337 0
309 1 C 18.1541 15.4198 0
311 1 C 19.4462 15.5497 0
313 1 C 20.4443 15.5252 0
315 1 C 21.8509 15.4923 0
317 1 C 23.2943 15.8053 0
319 1 C 24.4291 15.7804 0
282 1 C 0.464235 16.6356 0
284 1 C 1.86943 16.705 0
286 1 C 3.09822 16.8918 0
288 1 C 4.40936 16.5023 0
290 1 C 5.91473 16.4798 0
292 1 C 6.9154 16.5505 0
294 1 C 8.14917 16.7917 0
296 1 C 9.71968 16.506 0
298 1 C 10.747 16.5107 0
300 1 C 12.1789 16.8047 0
302 1 C 13.7392 16.5634 0
304 1 C 14.8797 16.7733 0
306 1 C 16.2767 16.7139 0
308 1 C 17.4489 16.6445 0
310 1 C 18.4401 16.5763 0
312 1 C 20.0198 16.4383 0
314 1 C 21.0148 16.4213 0
316 1 C 22.2949 16.8891 0
318 1 C 23.862 16.8521 0
320 1 C 25.1339 16.7673 0
321 1 C 25.4972 17.7768 0
323 1 C 1.13396 17.87 0
325 1 C 2.35688 17.7767 0
327 1 C 3.81713 17.9723 0
329 1 C 5.28584 17.7282 0
331 1 C 6.55806 17.8293 0
333 1 C 7.81123 17.8336 0
335 1 C 8.98874 17.5506 0
337 1 C 10.4866 17.5903 0
339 1 C 11.7319 17.9275 0
341 1 C 12.782 18.0407 0
343 1 C 14.1162 17.7757 0
345 1 C 15.5256 17.5828 0
347 1 C 16.7288 17.8936 0
349 1 C 17.9884 17.6527 0
351 1 C 19.1644 17.7203 0
353 1 C 20.4339 17.8118 0
355 1 C 22.066 17.9957 0
357 1 C 23.2186 17.6838 0
359 1 C 24.3662 17.7831 0
322 1 C 0.640211 18.7579 0
324 1 C 2.11482 18.8568 0
326 1 C 3.26978 18.9788 0
328 1 C 4.45944 19.0457 0
330 1 C 5.89923 19.1518 0
332 1 C 7.06582 18.7279 0
334 1 C 8.1401 19.1263 0
336 1 C 9.65301 18.9928 0
338 1 C 11.0782 18.9434 0
340 1 C 12.0725 18.8589 0
342 1 C 13.416 19.1289 0
344 1 C 14.9169 19.0105 0
346 1 C 15.8987 18.8477 0
348 1 C 17.2749 18.8927 0
350 1 C 18.5957 18.8453 0
352 1 C 19.7384 18.6721 0
354 1 C 21.3488 18.9377 0
356 1 C 22.35 19.0545 0
358 1 C 23.6286 19.0063 0
360 1 C 24.8224 19.1226 0
361 3 C 0 20.0106 0
363 3 C 1.28436 20.0106 0
365 3 C 2.56871 20.0106 0
367 3 C 3.85307 20.0106 0
369 3 C 5.13743 20.0106 0
371 3 C 6.42178 20.0106 0
373 3 C 7.70614 20.0106 0
375 3 C 8.9905 20.0106 0
377 3 C 10.2749 20.0106 0
379 3 C 11.5592 20.0106 0
381 3 C 12.8436 20.0106 0
383 3 C 14.1279 20.0106 0
385 3 C 15.4123 20.0106 0
387 3 C 16.6966 20.0106 0
389 3 C 17.981 20.0106 0
391 3 C 19.2654 20.0106 0
393 3 C 20.5497 20.0106 0
395 3 C 21.8341 20.0106 0
397 3 C 23.1184 20.0106 0
399 3 C 24.4028 20.0106 0
362 3 C 0.642178 21.1228 0
364 3 C 1.92654 21.1228 0
366 3 C 3.21089 21.1228 0
368 3 C 4.49525 21.1228 0
370 3 C 5.77961 21.1228 0
372 3 C 7.06396 21.1228 0
374 3 C 8.34832 21.1228 0
376 3 C 9.63268 21.1228 0
378 3 C 10.917 21.1228 0
380 3 C 12.2014 21.1228 0
382 3 C 13.4857 21.1228 0
384 3 C 14.7701 21.1228 0
386 3 C 16.0545 21.1228 0
388 3 C 17.3388 21.1228 0
390 3 C 18.6232 21.1228 0
392 3 C 19.9075 21.1228 0
394 3 C 21.1919 21.1228 0
396 3 C 22.4762 21.1228 0
398 3 C 23.7606 21.1228 0
400 3 C 25.045 21.1228 0
401 3 C 0 22.2351 0
402 3 C 1.28436 22.2351 0
403 3 C 2.56871 22.2351 0
404 3 C 3.85307 22.2351 0
405 3 C 5.13743 22.2351 0
406 3 C 6.42178 22.2351 0
407 3 C 7.70614 22.2351 0
408 3 C 8.9905 22.2351 0
409 3 C 10.2749 22.2351 0
410 3 C 11.5592 22.2351 0
411 3 C 12.8436 22.2351 0
412 3 C 14.1279 22.2351 0
413 3 C 15.4123 22.2351 0
414 3 C 16.6966 22.2351 0
415 3 C 17.981 22.2351 0
416 3 C 19.2654 22.2351 0
417 3 C 20.5497 22.2351 0
418 3 C 21.8341 22.2351 0
419 3 C 23.1184 22.2351 0
420 3 C 24.4028 22.2351 0
ITEM: TIMESTEP
100
ITEM: NUMBER OF ATOMS
420
ITEM: BOX BOUNDS pp ss pp
0.0000000000000000e+00 2.5687134504920127e+01
-2.2245711031688635e-03 2.2231337829867030e+01
-3.2108918131150160e-01 3.2108918131150160e-01
ITEM: ATOMS id type element x y z
1 2 C 0 0 0
3 2 C 1.28436 0 0
5 2 C 2.56871 0 0
7 2 C 3.85307 0 0
9 2 C 5.13743 0 0
11 2 C 6.42178 0 0
13 2 C 7.70614 0 0
15 2 C 8.9905 0 0
17 2 C 10.2749 0 0
19 2 C 11.5592 0 0
21 2 C 12.8436 0 0
23 2 C 14.1279 0 0
25 2 C 15.4123 0 0
27 2 C 16.6966 0 0
29 2 C 17.981 0 0
31 2 C 19.2654 0 0
33 2 C 20.5497 0 0
35 2 C 21.8341 0 0
37 2 C 23.1184 0 0
39 2 C 24.4028 0 0
2 2 C 0.642178 1.11229 0
4 2 C 1.92654 1.11229 0
6 2 C 3.21089 1.11229 0
8 2 C 4.49525 1.11229 0
10 2 C 5.77961 1.11229 0
12 2 C 7.06396 1.11229 0
14 2 C 8.34832 1.11229 0
16 2 C 9.63268 1.11229 0
18 2 C 10.917 1.11229 0
20 2 C 12.2014 1.11229 0
22 2 C 13.4857 1.11229 0
24 2 C 14.7701 1.11229 0
26 2 C 16.0545 1.11229 0
28 2 C 17.3388 1.11229 0
30 2 C 18.6232 1.11229 0
32 2 C 19.9075 1.11229 0
34 2 C 21.1919 1.11229 0
36 2 C 22.4762 1.11229 0
38 2 C 23.7606 1.11229 0
40 2 C 25.045 1.11229 0
41 2 C 0 2.22457 0
43 2 C 1.28436 2.22457 0
45 2 C 2.56871 2.22457 0
47 2 C 3.85307 2.22457 0
49 2 C 5.13743 2.22457 0
51 2 C 6.42178 2.22457 0
53 2 C 7.70614 2.22457 0
55 2 C 8.9905 2.22457 0
57 2 C 10.2749 2.22457 0
59 2 C 11.5592 2.22457 0
61 2 C 12.8436 2.22457 0
63 2 C 14.1279 2.22457 0
65 2 C 15.4123 2.22457 0
67 2 C 16.6966 2.22457 0
69 2 C 17.981 2.22457 0
71 2 C 19.2654 2.22457 0
73 2 C 20.5497 2.22457 0
75 2 C 21.8341 2.22457 0
77 2 C 23.1184 2.22457 0
79 2 C 24.4028 2.22457 0
42 1 C 0.718869 3.33978 0
44 1 C 2.03948 3.35789 0
46 1 C 3.15778 3.62206 0
48 1 C 4.77532 3.19367 0
50 1 C 6.01406 3.34485 0
52 1 C 7.05718 3.05106 0
54 1 C 8.34357 3.13326 0
56 1 C 9.71407 3.28265 0
58 1 C 11.3588 3.24229 0
60 1 C 12.5292 3.45354 0
62 1 C 13.7063 3.45823 0
64 1 C 14.929 3.62717 0
66 1 C 16.3296 3.40818 0
68 1 C 17.5042 3.32786 0
70 1 C 18.6891 3.34593 0
72 1 C 19.6847 3.17154 0
74 1 C 21.3983 3.50973 0
76 1 C 22.5742 3.2841 0
78 1 C 23.8487 3.38712 0
80 1 C 25.1061 3.14848 0
81 1 C 25.5618 4.57646 0
83 1 C 1.22647 4.33053 0
85 1 C 2.46552 4.43784 0
87 1 C 4.30839 4.1875 0
89 1 C 5.2239 4.50519 0
91 1 C 6.43791 4.40317 0
93 1 C 7.67095 4.25086 0
95 1 C 8.88282 4.42425 0
97 1 C 10.2313 4.58521 0
99 1 C 11.7079 4.33217 0
101 1 C 13.176 4.40612 0
103 1 C 14.2237 4.64773 0
105 1 C 15.5773 4.43957 0
107 1 C 16.9949 4.25149 0
109 1 C 18.0423 4.50151 0
111 1 C 19.429 5.02156 0
113 1 C 20.4332 4.26459 0
115 1 C 21.9708 4.50003 0
117 1 C 23.0187 4.22243 0
119 1 C 24.3048 4.67963 0
82 1 C 0.818102 5.3569 0
84 1 C 2.08303 5.53756 0
86 1 C 3.23635 5.84373 0
88 1 C 4.11895 5.27071 0
90 1 C 5.62852 5.95978 0
92 1 C 7.13335 5.20704 0
94 1 C 8.3458 5.49407 0
96 1 C 9.33495 5.38188 0
98 1 C 10.8566 5.66245 0
100 1 C 12.2044 5.1724 0
102 1 C 13.299 5.46471 0
104 1 C 14.7472 5.53717 0
106 1 C 16.2619 5.80112 0
108 1 C 17.1767 5.27507 0
110 1 C 18.4797 5.86564 0
112 1 C 20.0083 5.86721 0
114 1 C 21.1972 5.49737 0
116 1 C 22.5185 5.7797 0
118 1 C 23.5575 5.44021 0
120 1 C 24.8056 5.55274 0
121 1 C 25.5216 6.39694 0
123 1 C 0.879571 6.52972 0
125 1 C 2.17837 6.87654 0
127 1 C 3.93989 6.70124 0
129 1 C 5.00468 6.74938 0
131 1 C 6.83241 6.86677 0
133 1 C 7.85604 6.91088 0
135 1 C 9.09796 6.86366 0
137 1 C 10.145 6.54481 0
139 1 C 11.4764 6.62694 0
141 1 C 12.519 6.45154 0
143 1 C 13.7527 6.5327 0
145 1 C 14.9183 6.87566 0
147 1 C 17.0081 6.61102 0
149 1 C 18.2404 6.83326 0
151 1 C 19.4353 6.78243 0
153 1 C 20.4699 6.8184 0
155 1 C 21.818 6.54062 0
157 1 C 23.1623 6.88626 0
159 1 C 24.4445 7.0385 0
122 1 C 0.881792 7.62183 0
124 1 C 1.89211 7.98843 0
126 1 C 3.41082 7.94676 0
128 1 C 4.58263 7.6372 0
130 1 C 5.86809 7.46489 0
132 1 C 7.04595 8.09238 0
134 1 C 8.56111 7.6964 0
136 1 C 9.87369 7.53214 0
138 1 C 11.2819 7.7618 0
140 1 C 12.3981 7.6891 0
142 1 C 13.3982 8.04469 0
144 1 C 14.3527 7.72715 0
146 1 C 15.7529 7.6139 0
148 1 C 17.516 7.78283 0
150 1 C 18.8641 7.94178 0
152 1 C 19.977 7.78499 0
154 1 C 21.0657 7.64337 0
156 1 C 22.2508 7.5669 0
158 1 C 23.2723 8.0915 0
160 1 C 25.5456 7.53592 0
161 1 C 0.0816514 9.16086 0
163 1 C 1.1078 9.15397 0
165 1 C 2.20596 9.07112 0
167 1 C 3.6844 8.92889 0
169 1 C 4.85762 8.94996 0
171 1 C 6.8732 9.15895 0
173 1 C 8.06639 8.63336 0
175 1 C 9.15392 8.80504 0
177 1 C 10.3461 8.70213 0
179 1 C 11.5741 8.82221 0
181 1 C 12.53 9.01358 0
183 1 C 14.0495 8.92995 0
185 1 C 15.2074 8.68481 0
187 1 C 16.3017 8.52064 0
189 1 C 18.0037 9.04127 0
191 1 C 19.245 8.91236 0
193 1 C 20.6573 9.16997 0
195 1 C 21.5129 8.63186 0
197 1 C 23.4222 9.21641 0
199 1 C 24.8882 8.58482 0
162 1 C 0.645016 10.1862 0
164 1 C 1.6649 10.0242 0
166 1 C 2.85464 10.0377 0
168 1 C 4.35689 9.82657 0
170 1 C 6.03538 9.93003 0
172 1 C 7.13912 10.2421 0
174 1 C 8.61655 9.90568 0
176 1 C 9.6428 9.73418 0
178 1 C 10.8892 9.63991 0
180 1 C 12.4012 10.0627 0
182 1 C 13.6099 9.89716 0
184 1 C 14.7541 10.4661 0
186 1 C 15.8971 10.3 0
188 1 C 17.1678 9.7325 0
190 1 C 18.6307 10.1088 0
192 1 C 19.6069 9.93725 0
194 1 C 21.225 9.98167 0
196 1 C 22.387 9.98119 0
198 1 C 24.2731 9.85047 0
200 1 C 25.249 10.0441 0
201 1 C 25.6673 11.2147 0
203 1 C 1.04458 11.1036 0
205 1 C 2.29169 10.8896 0
207 1 C 3.97937 11.0623 0
209 1 C 5.25565 10.7565 0
211 1 C 6.37176 11.3213 0
213 1 C 7.94905 11.0253 0
215 1 C 9.12744 11.667 0
217 1 C 10.0648 11.2923 0
219 1 C 11.7285 11.2462 0
221 1 C 12.8575 10.9933 0
223 1 C 14.2771 11.4692 0
225 1 C 15.3929 11.3451 0
227 1 C 17.1729 10.9779 0
229 1 C 18.1974 11.1823 0
231 1 C 19.5729 11.182 0
233 1 C 20.6355 11.2245 0
235 1 C 22.0499 11.2038 0
237 1 C 23.109 10.7445 0
239 1 C 24.4747 10.8634 0
202 1 C 0.511644 12.0984 0
204 1 C 1.48421 12.1407 0
206 1 C 3.25671 12.461 0
208 1 C 4.42618 12.4149 0
210 1 C 5.60016 12.2013 0
212 1 C 7.14921 11.9893 0
214 1 C 8.29786 12.5369 0
216 1 C 10.1497 12.5047 0
218 1 C 11.159 12.3194 0
220 1 C 12.4065 12.0306 0
222 1 C 13.592 12.2428 0
224 1 C 14.9835 12.3968 0
226 1 C 16.2742 12.0966 0
228 1 C 17.5029 12.4034 0
230 1 C 18.6055 12.319 0
232 1 C 19.8603 12.4444 0
234 1 C 21.0925 12.2012 0
236 1 C 22.1252 12.2255 0
238 1 C 23.3624 12.14 0
240 1 C 24.9816 12.4955 0
241 1 C -0.0366862 13.4199 0
243 1 C 1.13328 13.524 0
245 1 C 2.43531 13.3462 0
247 1 C 3.92147 13.2712 0
249 1 C 5.3617 13.2544 0
251 1 C 6.67107 13.0084 0
253 1 C 7.71248 13.3793 0
255 1 C 9.00589 13.3661 0
257 1 C 10.6338 13.7186 0
259 1 C 11.6081 13.2625 0
261 1 C 12.8418 13.432 0
263 1 C 14.4437 13.2741 0
265 1 C 15.4402 13.3606 0
267 1 C 16.7541 13.1444 0
269 1 C 18.0817 13.3457 0
271 1 C 19.3409 13.2732 0
273 1 C 20.7197 13.7301 0
275 1 C 22.0077 13.3905 0
277 1 C 23.0131 13.1571 0
279 1 C 24.1622 13.5313 0
242 1 C 0.718547 14.7183 0
244 1 C 1.80852 14.2728 0
246 1 C 3.47599 14.2205 0
248 1 C 4.45002 14.3607 0
250 1 C 5.93061 14.4825 0
252 1 C 6.99129 14.3482 0
254 1 C 8.35015 14.5028 0
256 1 C 9.70212 14.2471 0
258 1 C 11.12 14.8063 0
260 1 C 12.0916 14.195 0
262 1 C 13.6338 14.2289 0
264 1 C 14.7258 14.4875 0
266 1 C 15.7377 14.3341 0
268 1 C 16.9319 14.1417 0
270 1 C 19.023 14.255 0
272 1 C 20.0421 14.5085 0
274 1 C 21.2367 14.6453 0
276 1 C 22.4994 14.6553 0
278 1 C 23.593 14.4988 0
280 1 C 25.223 14.7096 0
281 1 C 0.0713828 15.6782 0
283 1 C 1.21763 15.656 0
285 1 C 2.49378 15.1034 0
287 1 C 3.65041 15.5805 0
289 1 C 4.86155 15.3906 0
291 1 C 6.70734 15.2935 0
293 1 C 7.75744 15.2832 0
295 1 C 8.64936 15.9187 0
297 1 C 10.1356 15.1731 0
299 1 C 12.1032 15.3757 0
301 1 C 12.9154 16.0449 0
303 1 C 13.7594 15.2688 0
305 1 C 15.6807 15.6352 0
307 1 C 16.8608 15.2562 0
309 1 C 18.3355 15.267 0
311 1 C 19.3532 15.4454 0
313 1 C 20.5059 15.5142 0
315 1 C 21.9274 15.5036 0
317 1 C 23.4315 16.0145 0
319 1 C 24.4998 15.956 0
282 1 C 0.509817 16.6135 0
284 1 C 1.82209 16.7216 0
286 1 C 3.00506 17.092 0
288 1 C 4.37898 16.3772 0
290 1 C 5.78466 16.2649 0
292 1 C 7.06954 16.7114 0
294 1 C 8.05507 16.8464 0
296 1 C 9.62057 16.3283 0
298 1 C 10.7928 16.3111 0
300 1 C 12.18 16.8983 0
302 1 C 13.9626 16.431 0
304 1 C 14.9279 16.7401 0
306 1 C 16.401 16.7445 0
308 1 C 17.416 16.6106 0
310 1 C 18.5415 16.4485 0
312 1 C 19.8665 16.4637 0
314 1 C 21.1963 16.3079 0
316 1 C 22.125 17.0811 0
318 1 C 24.0039 16.8417 0
320 1 C 25.0286 16.8019 0
321 1 C 25.3981 17.8469 0
323 1 C 1.10033 17.7481 0
325 1 C 2.15508 17.7362 0
327 1 C 3.80351 18.1268 0